REMARK SMILES COc1cc(OC)c2c(=O)cc(-c3ccccc3)oc2c1
REMARK SMILES IDX 3 1 4 2 5 3 8 4 9 5 10 6 11 7 12 8 19 9 20 10 21 11 2 12
REMARK SMILES IDX 1 13 6 14 7 15 13 16 14 17 18 18 15 19 17 20 16 21
REMARK H PARENT
ROOT
ATOM      1  C   UNL     1      -3.003  -0.540  -0.337  1.00  0.00     0.126 A 
ATOM      2  C   UNL     1      -3.260   0.819  -0.125  1.00  0.00     0.093 A 
ATOM      3  C   UNL     1      -2.221   1.729   0.120  1.00  0.00     0.137 A 
ATOM      4  C   UNL     1      -0.898   1.255   0.152  1.00  0.00     0.107 A 
ATOM      5  C   UNL     1       0.272   2.133   0.403  1.00  0.00     0.197 C 
ATOM      6  O   UNL     1       0.210   3.338   0.607  1.00  0.00    -0.289 OA
ATOM      7  C   UNL     1       1.597   1.487   0.399  1.00  0.00     0.100 C 
ATOM      8  C   UNL     1       1.695   0.172   0.174  1.00  0.00     0.138 C 
ATOM      9  O   UNL     1       0.611  -0.657  -0.046  1.00  0.00    -0.456 OA
ATOM     10  C   UNL     1      -0.647  -0.105  -0.060  1.00  0.00     0.146 A 
ATOM     11  C   UNL     1      -1.692  -1.001  -0.303  1.00  0.00     0.094 A 
ENDROOT
BRANCH   1  12
ATOM     12  O   UNL     1      -4.117  -1.301  -0.564  1.00  0.00    -0.496 OA
ATOM     13  C   UNL     1      -3.915  -2.690  -0.797  1.00  0.00     0.278 C 
ENDBRANCH   1  12
BRANCH   3  14
ATOM     14  O   UNL     1      -2.423   3.065   0.332  1.00  0.00    -0.496 OA
ATOM     15  C   UNL     1      -3.753   3.564   0.309  1.00  0.00     0.278 C 
ENDBRANCH   3  14
BRANCH   8  16
ATOM     16  C   UNL     1       2.998  -0.520   0.168  1.00  0.00     0.017 A 
ATOM     17  C   UNL     1       3.136  -1.760   0.809  1.00  0.00     0.012 A 
ATOM     18  C   UNL     1       4.113   0.021  -0.490  1.00  0.00     0.012 A 
ATOM     19  C   UNL     1       4.360  -2.434   0.806  1.00  0.00     0.001 A 
ATOM     20  C   UNL     1       5.337  -0.653  -0.493  1.00  0.00     0.001 A 
ATOM     21  C   UNL     1       5.460  -1.880   0.156  1.00  0.00     0.000 A 
ENDBRANCH   8  16
TORSDOF 3
