REMARK  Name = /content/drive/MyDrive/00_GITHUB_GD/DOCKING_ML/Docking_Scores/XYZ/BCD.xyz
REMARK                            x       y       z     vdW  Elec       q    Type
REMARK                         _______ _______ _______ _____ _____    ______ ____
ATOM      1  O   UNL     1       0.036   6.532   2.737  0.00  0.00    +0.000 OA
ATOM      2  C   UNL     1      -0.113   5.166   2.422  0.00  0.00    +0.000 C 
ATOM      3  C   UNL     1      -0.808   4.940   1.093  0.00  0.00    +0.000 C 
ATOM      4  O   UNL     1      -2.122   5.458   1.246  0.00  0.00    +0.000 OA
ATOM      5  C   UNL     1      -2.990   5.320   0.163  0.00  0.00    +0.000 C 
ATOM      6  C   UNL     1      -2.392   6.016  -1.053  0.00  0.00    +0.000 C 
ATOM      7  C   UNL     1      -0.995   5.484  -1.339  0.00  0.00    +0.000 C 
ATOM      8  C   UNL     1      -0.125   5.618  -0.098  0.00  0.00    +0.000 C 
ATOM      9  O   UNL     1       1.116   4.994  -0.362  0.00  0.00    +0.000 OA
ATOM     10  O   UNL     1      -3.227   5.910  -2.178  0.00  0.00    +0.000 OA
ATOM     11  O   UNL     1      -0.385   6.214  -2.379  0.00  0.00    +0.000 OA
ATOM     12  O   UNL     1       5.264   4.579   2.470  0.00  0.00    +0.000 OA
ATOM     13  C   UNL     1       4.102   3.792   2.336  0.00  0.00    +0.000 C 
ATOM     14  C   UNL     1       3.429   3.958   0.986  0.00  0.00    +0.000 C 
ATOM     15  O   UNL     1       3.004   5.312   0.925  0.00  0.00    +0.000 OA
ATOM     16  C   UNL     1       2.306   5.707  -0.216  0.00  0.00    +0.000 C 
ATOM     17  C   UNL     1       3.174   5.471  -1.445  0.00  0.00    +0.000 C 
ATOM     18  C   UNL     1       3.629   4.019  -1.506  0.00  0.00    +0.000 C 
ATOM     19  C   UNL     1       4.332   3.641  -0.210  0.00  0.00    +0.000 C 
ATOM     20  O   UNL     1       4.607   2.255  -0.258  0.00  0.00    +0.000 OA
ATOM     21  O   UNL     1       2.521   5.856  -2.629  0.00  0.00    +0.000 OA
ATOM     22  O   UNL     1       4.537   3.829  -2.569  0.00  0.00    +0.000 OA
ATOM     23  O   UNL     1       6.414  -1.202   2.918  0.00  0.00    +0.000 OA
ATOM     24  C   UNL     1       5.114  -0.775   2.579  0.00  0.00    +0.000 C 
ATOM     25  C   UNL     1       5.034  -0.172   1.189  0.00  0.00    +0.000 C 
ATOM     26  O   UNL     1       5.839   0.998   1.223  0.00  0.00    +0.000 OA
ATOM     27  C   UNL     1       5.877   1.774   0.065  0.00  0.00    +0.000 C 
ATOM     28  C   UNL     1       6.402   0.928  -1.088  0.00  0.00    +0.000 C 
ATOM     29  C   UNL     1       5.570  -0.337  -1.247  0.00  0.00    +0.000 C 
ATOM     30  C   UNL     1       5.518  -1.098   0.069  0.00  0.00    +0.000 C 
ATOM     31  O   UNL     1       4.622  -2.179  -0.092  0.00  0.00    +0.000 OA
ATOM     32  O   UNL     1       6.463   1.661  -2.285  0.00  0.00    +0.000 OA
ATOM     33  O   UNL     1       6.137  -1.184  -2.221  0.00  0.00    +0.000 OA
ATOM     34  O   UNL     1       2.714  -5.712   2.934  0.00  0.00    +0.000 OA
ATOM     35  C   UNL     1       2.262  -4.441   2.526  0.00  0.00    +0.000 C 
ATOM     36  C   UNL     1       2.834  -4.015   1.188  0.00  0.00    +0.000 C 
ATOM     37  O   UNL     1       4.238  -3.910   1.376  0.00  0.00    +0.000 OA
ATOM     38  C   UNL     1       4.993  -3.469   0.290  0.00  0.00    +0.000 C 
ATOM     39  C   UNL     1       4.787  -4.418  -0.884  0.00  0.00    +0.000 C 
ATOM     40  C   UNL     1       3.305  -4.557  -1.204  0.00  0.00    +0.000 C 
ATOM     41  C   UNL     1       2.542  -4.985   0.040  0.00  0.00    +0.000 C 
ATOM     42  O   UNL     1       1.162  -4.973  -0.265  0.00  0.00    +0.000 OA
ATOM     43  O   UNL     1       5.525  -4.020  -2.012  0.00  0.00    +0.000 OA
ATOM     44  O   UNL     1       3.100  -5.533  -2.200  0.00  0.00    +0.000 OA
ATOM     45  O   UNL     1      -2.833  -6.262   2.518  0.00  0.00    +0.000 OA
ATOM     46  C   UNL     1      -2.135  -5.050   2.341  0.00  0.00    +0.000 C 
ATOM     47  C   UNL     1      -1.414  -4.975   1.008  0.00  0.00    +0.000 C 
ATOM     48  O   UNL     1      -0.441  -6.009   1.031  0.00  0.00    +0.000 OA
ATOM     49  C   UNL     1       0.393  -6.122  -0.081  0.00  0.00    +0.000 C 
ATOM     50  C   UNL     1      -0.454  -6.353  -1.326  0.00  0.00    +0.000 C 
ATOM     51  C   UNL     1      -1.491  -5.248  -1.476  0.00  0.00    +0.000 C 
ATOM     52  C   UNL     1      -2.327  -5.148  -0.210  0.00  0.00    +0.000 C 
ATOM     53  O   UNL     1      -3.179  -4.027  -0.338  0.00  0.00    +0.000 OA
ATOM     54  O   UNL     1       0.335  -6.482  -2.482  0.00  0.00    +0.000 OA
ATOM     55  O   UNL     1      -2.358  -5.524  -2.553  0.00  0.00    +0.000 OA
ATOM     56  O   UNL     1      -6.554  -1.864   2.687  0.00  0.00    +0.000 OA
ATOM     57  C   UNL     1      -5.180  -1.635   2.464  0.00  0.00    +0.000 C 
ATOM     58  C   UNL     1      -4.727  -2.083   1.087  0.00  0.00    +0.000 C 
ATOM     59  O   UNL     1      -4.941  -3.486   1.044  0.00  0.00    +0.000 OA
ATOM     60  C   UNL     1      -4.551  -4.152  -0.117  0.00  0.00    +0.000 C 
ATOM     61  C   UNL     1      -5.302  -3.568  -1.307  0.00  0.00    +0.000 C 
ATOM     62  C   UNL     1      -5.083  -2.063  -1.389  0.00  0.00    +0.000 C 
ATOM     63  C   UNL     1      -5.469  -1.408  -0.071  0.00  0.00    +0.000 C 
ATOM     64  O   UNL     1      -5.113  -0.042  -0.147  0.00  0.00    +0.000 OA
ATOM     65  O   UNL     1      -4.955  -4.207  -2.509  0.00  0.00    +0.000 OA
ATOM     66  O   UNL     1      -5.881  -1.502  -2.407  0.00  0.00    +0.000 OA
ATOM     67  O   UNL     1      -5.043   3.899   2.982  0.00  0.00    +0.000 OA
ATOM     68  C   UNL     1      -4.080   2.945   2.593  0.00  0.00    +0.000 C 
ATOM     69  C   UNL     1      -4.357   2.351   1.226  0.00  0.00    +0.000 C 
ATOM     70  O   UNL     1      -5.583   1.644   1.347  0.00  0.00    +0.000 OA
ATOM     71  C   UNL     1      -6.027   0.947   0.223  0.00  0.00    +0.000 C 
ATOM     72  C   UNL     1      -6.207   1.923  -0.933  0.00  0.00    +0.000 C 
ATOM     73  C   UNL     1      -4.922   2.701  -1.182  0.00  0.00    +0.000 C 
ATOM     74  C   UNL     1      -4.469   3.383   0.100  0.00  0.00    +0.000 C 
ATOM     75  O   UNL     1      -3.209   3.976  -0.145  0.00  0.00    +0.000 OA
ATOM     76  O   UNL     1      -6.656   1.278  -2.097  0.00  0.00    +0.000 OA
ATOM     77  O   UNL     1      -5.126   3.695  -2.161  0.00  0.00    +0.000 OA
ATOM     78  H   UNL     1      -0.829   6.916   2.831  0.00  0.00    +0.000 HD
ATOM     79  H   UNL     1      -0.678   4.658   3.196  0.00  0.00    +0.000 HD
ATOM     80  H   UNL     1       0.877   4.740   2.393  0.00  0.00    +0.000 HD
ATOM     81  H   UNL     1      -0.853   3.872   0.913  0.00  0.00    +0.000 HD
ATOM     82  H   UNL     1      -3.913   5.795   0.454  0.00  0.00    +0.000 HD
ATOM     83  H   UNL     1      -3.609   5.035  -2.219  0.00  0.00    +0.000 HD
ATOM     84  H   UNL     1      -2.315   7.071  -0.822  0.00  0.00    +0.000 HD
ATOM     85  H   UNL     1      -1.053   4.437  -1.618  0.00  0.00    +0.000 HD
ATOM     86  H   UNL     1      -0.899   6.099  -3.171  0.00  0.00    +0.000 HD
ATOM     87  H   UNL     1       0.024   6.667   0.116  0.00  0.00    +0.000 HD
ATOM     88  H   UNL     1       5.016   5.495   2.425  0.00  0.00    +0.000 HD
ATOM     89  H   UNL     1       3.385   4.042   3.110  0.00  0.00    +0.000 HD
ATOM     90  H   UNL     1       4.400   2.765   2.471  0.00  0.00    +0.000 HD
ATOM     91  H   UNL     1       2.567   3.301   0.956  0.00  0.00    +0.000 HD
ATOM     92  H   UNL     1       2.102   6.759  -0.094  0.00  0.00    +0.000 HD
ATOM     93  H   UNL     1       1.587   5.664  -2.563  0.00  0.00    +0.000 HD
ATOM     94  H   UNL     1       4.050   6.099  -1.353  0.00  0.00    +0.000 HD
ATOM     95  H   UNL     1       2.771   3.371  -1.644  0.00  0.00    +0.000 HD
ATOM     96  H   UNL     1       4.076   3.968  -3.390  0.00  0.00    +0.000 HD
ATOM     97  H   UNL     1       5.254   4.201  -0.135  0.00  0.00    +0.000 HD
ATOM     98  H   UNL     1       6.988  -0.444   2.930  0.00  0.00    +0.000 HD
ATOM     99  H   UNL     1       4.760  -0.038   3.292  0.00  0.00    +0.000 HD
ATOM    100  H   UNL     1       4.473  -1.639   2.640  0.00  0.00    +0.000 HD
ATOM    101  H   UNL     1       4.002   0.098   0.999  0.00  0.00    +0.000 HD
ATOM    102  H   UNL     1       6.549   2.591   0.272  0.00  0.00    +0.000 HD
ATOM    103  H   UNL     1       5.664   2.174  -2.394  0.00  0.00    +0.000 HD
ATOM    104  H   UNL     1       7.419   0.642  -0.850  0.00  0.00    +0.000 HD
ATOM    105  H   UNL     1       4.560  -0.074  -1.541  0.00  0.00    +0.000 HD
ATOM    106  H   UNL     1       6.100  -0.743  -3.064  0.00  0.00    +0.000 HD
ATOM    107  H   UNL     1       6.508  -1.468   0.301  0.00  0.00    +0.000 HD
ATOM    108  H   UNL     1       3.655  -5.672   3.060  0.00  0.00    +0.000 HD
ATOM    109  H   UNL     1       2.525  -3.692   3.266  0.00  0.00    +0.000 HD
ATOM    110  H   UNL     1       1.187  -4.492   2.465  0.00  0.00    +0.000 HD
ATOM    111  H   UNL     1       2.423  -3.043   0.940  0.00  0.00    +0.000 HD
ATOM    112  H   UNL     1       6.022  -3.485   0.613  0.00  0.00    +0.000 HD
ATOM    113  H   UNL     1       5.464  -3.073  -2.125  0.00  0.00    +0.000 HD
ATOM    114  H   UNL     1       5.167  -5.389  -0.593  0.00  0.00    +0.000 HD
ATOM    115  H   UNL     1       2.915  -3.604  -1.546  0.00  0.00    +0.000 HD
ATOM    116  H   UNL     1       3.527  -5.244  -3.000  0.00  0.00    +0.000 HD
ATOM    117  H   UNL     1       2.852  -5.984   0.319  0.00  0.00    +0.000 HD
ATOM    118  H   UNL     1      -2.204  -6.975   2.528  0.00  0.00    +0.000 HD
ATOM    119  H   UNL     1      -1.407  -4.915   3.134  0.00  0.00    +0.000 HD
ATOM    120  H   UNL     1      -2.860  -4.256   2.409  0.00  0.00    +0.000 HD
ATOM    121  H   UNL     1      -0.925  -4.011   0.943  0.00  0.00    +0.000 HD
ATOM    122  H   UNL     1       1.028  -6.974   0.105  0.00  0.00    +0.000 HD
ATOM    123  H   UNL     1       1.096  -5.907  -2.425  0.00  0.00    +0.000 HD
ATOM    124  H   UNL     1      -0.975  -7.293  -1.197  0.00  0.00    +0.000 HD
ATOM    125  H   UNL     1      -0.993  -4.300  -1.648  0.00  0.00    +0.000 HD
ATOM    126  H   UNL     1      -1.855  -5.509  -3.360  0.00  0.00    +0.000 HD
ATOM    127  H   UNL     1      -2.915  -6.049  -0.103  0.00  0.00    +0.000 HD
ATOM    128  H   UNL     1      -6.710  -2.802   2.661  0.00  0.00    +0.000 HD
ATOM    129  H   UNL     1      -4.586  -2.155   3.207  0.00  0.00    +0.000 HD
ATOM    130  H   UNL     1      -5.014  -0.576   2.578  0.00  0.00    +0.000 HD
ATOM    131  H   UNL     1      -3.668  -1.869   0.994  0.00  0.00    +0.000 HD
ATOM    132  H   UNL     1      -4.817  -5.188   0.026  0.00  0.00    +0.000 HD
ATOM    133  H   UNL     1      -4.015  -4.377  -2.529  0.00  0.00    +0.000 HD
ATOM    134  H   UNL     1      -6.357  -3.751  -1.151  0.00  0.00    +0.000 HD
ATOM    135  H   UNL     1      -4.038  -1.856  -1.593  0.00  0.00    +0.000 HD
ATOM    136  H   UNL     1      -5.584  -1.838  -3.246  0.00  0.00    +0.000 HD
ATOM    137  H   UNL     1      -6.537  -1.506   0.070  0.00  0.00    +0.000 HD
ATOM    138  H   UNL     1      -5.887   3.467   3.048  0.00  0.00    +0.000 HD
ATOM    139  H   UNL     1      -4.035   2.137   3.316  0.00  0.00    +0.000 HD
ATOM    140  H   UNL     1      -3.125   3.447   2.588  0.00  0.00    +0.000 HD
ATOM    141  H   UNL     1      -3.556   1.660   0.991  0.00  0.00    +0.000 HD
ATOM    142  H   UNL     1      -6.971   0.505   0.496  0.00  0.00    +0.000 HD
ATOM    143  H   UNL     1      -6.165   0.469  -2.232  0.00  0.00    +0.000 HD
ATOM    144  H   UNL     1      -6.982   2.625  -0.652  0.00  0.00    +0.000 HD
ATOM    145  H   UNL     1      -4.143   2.023  -1.515  0.00  0.00    +0.000 HD
ATOM    146  H   UNL     1      -5.340   3.270  -2.984  0.00  0.00    +0.000 HD
ATOM    147  H   UNL     1      -5.191   4.142   0.369  0.00  0.00    +0.000 HD
TER 
