REMARK  Name = /content/drive/MyDrive/00_GITHUB_GD/DOCKING_ML/Docking_Scores/XYZ/HPBCD.xyz
REMARK                            x       y       z     vdW  Elec       q    Type
REMARK                         _______ _______ _______ _____ _____    ______ ____
ATOM      1  C   UNL     1       2.305   3.068  -2.083  0.00  0.00    +0.000 C 
ATOM      2  C   UNL     1       1.382   4.228  -1.738  0.00  0.00    +0.000 C 
ATOM      3  O   UNL     1       1.881   5.389  -2.357  0.00  0.00    +0.000 OA
ATOM      4  C   UNL     1       1.258   4.401  -0.234  0.00  0.00    +0.000 C 
ATOM      5  O   UNL     1       0.287   5.394  -0.005  0.00  0.00    +0.000 OA
ATOM      6  C   UNL     1       0.866   3.084   0.425  0.00  0.00    +0.000 C 
ATOM      7  C   UNL     1       1.812   1.965  -0.020  0.00  0.00    +0.000 C 
ATOM      8  O   UNL     1       1.842   1.920  -1.439  0.00  0.00    +0.000 OA
ATOM      9  C   UNL     1       1.424   0.583   0.461  0.00  0.00    +0.000 C 
ATOM     10  O   UNL     1       0.107   0.288   0.074  0.00  0.00    +0.000 OA
ATOM     11  O   UNL     1       0.953   3.279   1.823  0.00  0.00    +0.000 OA
ATOM     12  C   UNL     1      -0.116   2.943   2.650  0.00  0.00    +0.000 C 
ATOM     13  C   UNL     1      -0.469   4.120   3.551  0.00  0.00    +0.000 C 
ATOM     14  O   UNL     1      -0.714   5.242   2.737  0.00  0.00    +0.000 OA
ATOM     15  C   UNL     1       0.632   4.388   4.562  0.00  0.00    +0.000 C 
ATOM     16  O   UNL     1       0.163   5.388   5.437  0.00  0.00    +0.000 OA
ATOM     17  C   UNL     1       0.978   3.111   5.316  0.00  0.00    +0.000 C 
ATOM     18  C   UNL     1       1.292   1.985   4.331  0.00  0.00    +0.000 C 
ATOM     19  O   UNL     1       0.190   1.838   3.446  0.00  0.00    +0.000 OA
ATOM     20  C   UNL     1       1.535   0.631   4.972  0.00  0.00    +0.000 C 
ATOM     21  O   UNL     1       0.469   0.198   5.789  0.00  0.00    +0.000 OA
ATOM     22  O   UNL     1       2.104   3.383   6.127  0.00  0.00    +0.000 OA
ATOM     23  C   UNL     1       2.015   3.230   7.507  0.00  0.00    +0.000 C 
ATOM     24  C   UNL     1       2.628   4.437   8.203  0.00  0.00    +0.000 C 
ATOM     25  O   UNL     1       1.987   5.594   7.721  0.00  0.00    +0.000 OA
ATOM     26  C   UNL     1       4.130   4.493   7.986  0.00  0.00    +0.000 C 
ATOM     27  O   UNL     1       4.629   5.552   8.769  0.00  0.00    +0.000 OA
ATOM     28  C   UNL     1       4.773   3.168   8.373  0.00  0.00    +0.000 C 
ATOM     29  C   UNL     1       4.065   2.006   7.670  0.00  0.00    +0.000 C 
ATOM     30  O   UNL     1       2.671   2.074   7.935  0.00  0.00    +0.000 OA
ATOM     31  C   UNL     1       4.532   0.633   8.103  0.00  0.00    +0.000 C 
ATOM     32  O   UNL     1       4.330   0.470   9.483  0.00  0.00    +0.000 OA
ATOM     33  O   UNL     1       6.126   3.241   7.966  0.00  0.00    +0.000 OA
ATOM     34  C   UNL     1       7.147   2.854   8.831  0.00  0.00    +0.000 C 
ATOM     35  C   UNL     1       8.894   4.282   7.731  0.00  0.00    +0.000 C 
ATOM     36  O   UNL     1       9.876   5.247   8.026  0.00  0.00    +0.000 OA
ATOM     37  C   UNL     1       9.519   3.001   7.193  0.00  0.00    +0.000 C 
ATOM     38  O   UNL     1      10.071   3.290   5.923  0.00  0.00    +0.000 OA
ATOM     39  C   UNL     1       8.458   1.907   7.068  0.00  0.00    +0.000 C 
ATOM     40  O   UNL     1       7.828   1.743   8.332  0.00  0.00    +0.000 OA
ATOM     41  C   UNL     1       8.990   0.548   6.654  0.00  0.00    +0.000 C 
ATOM     42  O   UNL     1      10.029   0.074   7.483  0.00  0.00    +0.000 OA
ATOM     43  C   UNL     1       8.138   3.998   9.017  0.00  0.00    +0.000 C 
ATOM     44  O   UNL     1       7.429   5.128   9.464  0.00  0.00    +0.000 OA
ATOM     45  C   UNL     1      11.440   3.146   5.718  0.00  0.00    +0.000 C 
ATOM     46  C   UNL     1      11.975   4.349   4.955  0.00  0.00    +0.000 C 
ATOM     47  O   UNL     1      11.631   5.511   5.671  0.00  0.00    +0.000 OA
ATOM     48  C   UNL     1      11.435   4.382   3.537  0.00  0.00    +0.000 C 
ATOM     49  O   UNL     1      12.081   5.435   2.861  0.00  0.00    +0.000 OA
ATOM     50  C   UNL     1      11.677   3.050   2.838  0.00  0.00    +0.000 C 
ATOM     51  C   UNL     1      11.169   1.890   3.699  0.00  0.00    +0.000 C 
ATOM     52  O   UNL     1      11.728   1.983   5.002  0.00  0.00    +0.000 OA
ATOM     53  C   UNL     1      11.516   0.514   3.173  0.00  0.00    +0.000 C 
ATOM     54  O   UNL     1      12.909   0.375   3.073  0.00  0.00    +0.000 OA
ATOM     55  O   UNL     1      10.962   3.110   1.619  0.00  0.00    +0.000 OA
ATOM     56  C   UNL     1      11.537   2.661   0.432  0.00  0.00    +0.000 C 
ATOM     57  C   UNL     1      11.573   3.788  -0.593  0.00  0.00    +0.000 C 
ATOM     58  O   UNL     1      12.260   4.876  -0.024  0.00  0.00    +0.000 OA
ATOM     59  C   UNL     1      10.171   4.174  -1.031  0.00  0.00    +0.000 C 
ATOM     60  O   UNL     1      10.300   5.110  -2.076  0.00  0.00    +0.000 OA
ATOM     61  C   UNL     1       9.398   2.941  -1.483  0.00  0.00    +0.000 C 
ATOM     62  C   UNL     1       9.446   1.860  -0.405  0.00  0.00    +0.000 C 
ATOM     63  O   UNL     1      10.806   1.594  -0.093  0.00  0.00    +0.000 OA
ATOM     64  C   UNL     1       8.810   0.540  -0.800  0.00  0.00    +0.000 C 
ATOM     65  O   UNL     1       9.330   0.002  -1.996  0.00  0.00    +0.000 OA
ATOM     66  O   UNL     1       8.058   3.328  -1.719  0.00  0.00    +0.000 OA
ATOM     67  C   UNL     1       7.538   3.239  -3.006  0.00  0.00    +0.000 C 
ATOM     68  C   UNL     1       6.741   4.496  -3.329  0.00  0.00    +0.000 C 
ATOM     69  O   UNL     1       7.573   5.611  -3.108  0.00  0.00    +0.000 OA
ATOM     70  C   UNL     1       5.468   4.573  -2.504  0.00  0.00    +0.000 C 
ATOM     71  O   UNL     1       4.729   5.677  -2.971  0.00  0.00    +0.000 OA
ATOM     72  C   UNL     1       4.671   3.280  -2.631  0.00  0.00    +0.000 C 
ATOM     73  C   UNL     1       5.564   2.077  -2.319  0.00  0.00    +0.000 C 
ATOM     74  O   UNL     1       6.716   2.120  -3.149  0.00  0.00    +0.000 OA
ATOM     75  C   UNL     1       4.909   0.731  -2.539  0.00  0.00    +0.000 C 
ATOM     76  O   UNL     1       4.425   0.640  -3.854  0.00  0.00    +0.000 OA
ATOM     77  O   UNL     1       3.610   3.364  -1.699  0.00  0.00    +0.000 OA
ATOM     78  C   UNL     1      -0.335  -0.973   0.505  0.00  0.00    +0.000 C 
ATOM     79  C   UNL     1      -1.772  -1.173   0.052  0.00  0.00    +0.000 C 
ATOM     80  O   UNL     1      -2.134  -2.458   0.525  0.00  0.00    +0.000 OA
ATOM     81  C   UNL     1      -2.719  -0.111   0.586  0.00  0.00    +0.000 C 
ATOM     82  C   UNL     1       4.785  -0.764   9.976  0.00  0.00    +0.000 C 
ATOM     83  C   UNL     1       4.516  -0.826  11.470  0.00  0.00    +0.000 C 
ATOM     84  O   UNL     1       4.912  -2.128  11.864  0.00  0.00    +0.000 OA
ATOM     85  C   UNL     1       5.269   0.234  12.257  0.00  0.00    +0.000 C 
ATOM     86  C   UNL     1      13.319  -0.890   2.620  0.00  0.00    +0.000 C 
ATOM     87  C   UNL     1      14.836  -0.920   2.551  0.00  0.00    +0.000 C 
ATOM     88  O   UNL     1      15.166  -2.254   2.211  0.00  0.00    +0.000 OA
ATOM     89  C   UNL     1      15.408   0.058   1.538  0.00  0.00    +0.000 C 
ATOM     90  C   UNL     1       3.759  -0.567  -4.125  0.00  0.00    +0.000 C 
ATOM     91  C   UNL     1       3.297  -0.562  -5.572  0.00  0.00    +0.000 C 
ATOM     92  O   UNL     1       2.642  -1.804  -5.754  0.00  0.00    +0.000 OA
ATOM     93  C   UNL     1       2.369   0.596  -5.901  0.00  0.00    +0.000 C 
ATOM     94  H   UNL     1       2.260   2.858  -3.140  0.00  0.00    +0.000 HD
ATOM     95  H   UNL     1       0.403   3.990  -2.140  0.00  0.00    +0.000 HD
ATOM     96  H   UNL     1       1.287   6.112  -2.183  0.00  0.00    +0.000 HD
ATOM     97  H   UNL     1       2.214   4.718   0.170  0.00  0.00    +0.000 HD
ATOM     98  H   UNL     1       0.116   5.456   0.933  0.00  0.00    +0.000 HD
ATOM     99  H   UNL     1      -0.150   2.841   0.145  0.00  0.00    +0.000 HD
ATOM    100  H   UNL     1       2.805   2.172   0.360  0.00  0.00    +0.000 HD
ATOM    101  H   UNL     1       1.521   0.536   1.538  0.00  0.00    +0.000 HD
ATOM    102  H   UNL     1       2.110  -0.139   0.030  0.00  0.00    +0.000 HD
ATOM    103  H   UNL     1      -0.973   2.659   2.060  0.00  0.00    +0.000 HD
ATOM    104  H   UNL     1      -1.373   3.852   4.087  0.00  0.00    +0.000 HD
ATOM    105  H   UNL     1      -0.971   5.973   3.289  0.00  0.00    +0.000 HD
ATOM    106  H   UNL     1       1.519   4.737   4.044  0.00  0.00    +0.000 HD
ATOM    107  H   UNL     1       0.841   5.580   6.082  0.00  0.00    +0.000 HD
ATOM    108  H   UNL     1       0.135   2.826   5.933  0.00  0.00    +0.000 HD
ATOM    109  H   UNL     1       2.181   2.243   3.767  0.00  0.00    +0.000 HD
ATOM    110  H   UNL     1       1.642  -0.100   4.182  0.00  0.00    +0.000 HD
ATOM    111  H   UNL     1       2.459   0.657   5.531  0.00  0.00    +0.000 HD
ATOM    112  H   UNL     1       0.338   0.828   6.488  0.00  0.00    +0.000 HD
ATOM    113  H   UNL     1       0.986   3.117   7.807  0.00  0.00    +0.000 HD
ATOM    114  H   UNL     1       2.435   4.326   9.265  0.00  0.00    +0.000 HD
ATOM    115  H   UNL     1       2.296   6.349   8.210  0.00  0.00    +0.000 HD
ATOM    116  H   UNL     1       4.332   4.682   6.937  0.00  0.00    +0.000 HD
ATOM    117  H   UNL     1       5.583   5.504   8.794  0.00  0.00    +0.000 HD
ATOM    118  H   UNL     1       4.713   3.046   9.446  0.00  0.00    +0.000 HD
ATOM    119  H   UNL     1       4.238   2.088   6.604  0.00  0.00    +0.000 HD
ATOM    120  H   UNL     1       3.969  -0.116   7.554  0.00  0.00    +0.000 HD
ATOM    121  H   UNL     1       5.579   0.515   7.858  0.00  0.00    +0.000 HD
ATOM    122  H   UNL     1       6.741   2.556   9.784  0.00  0.00    +0.000 HD
ATOM    123  H   UNL     1       8.206   4.671   6.988  0.00  0.00    +0.000 HD
ATOM    124  H   UNL     1      10.343   5.471   7.224  0.00  0.00    +0.000 HD
ATOM    125  H   UNL     1      10.295   2.674   7.872  0.00  0.00    +0.000 HD
ATOM    126  H   UNL     1       7.722   2.206   6.331  0.00  0.00    +0.000 HD
ATOM    127  H   UNL     1       8.180  -0.166   6.725  0.00  0.00    +0.000 HD
ATOM    128  H   UNL     1       9.312   0.586   5.623  0.00  0.00    +0.000 HD
ATOM    129  H   UNL     1      10.752   0.690   7.452  0.00  0.00    +0.000 HD
ATOM    130  H   UNL     1       8.849   3.688   9.775  0.00  0.00    +0.000 HD
ATOM    131  H   UNL     1       8.042   5.846   9.586  0.00  0.00    +0.000 HD
ATOM    132  H   UNL     1      11.955   3.050   6.661  0.00  0.00    +0.000 HD
ATOM    133  H   UNL     1      13.054   4.248   4.914  0.00  0.00    +0.000 HD
ATOM    134  H   UNL     1      12.051   6.263   5.267  0.00  0.00    +0.000 HD
ATOM    135  H   UNL     1      10.366   4.564   3.568  0.00  0.00    +0.000 HD
ATOM    136  H   UNL     1      11.908   5.360   1.924  0.00  0.00    +0.000 HD
ATOM    137  H   UNL     1      12.735   2.939   2.645  0.00  0.00    +0.000 HD
ATOM    138  H   UNL     1      10.090   1.953   3.760  0.00  0.00    +0.000 HD
ATOM    139  H   UNL     1      11.052   0.366   2.206  0.00  0.00    +0.000 HD
ATOM    140  H   UNL     1      11.116  -0.229   3.856  0.00  0.00    +0.000 HD
ATOM    141  H   UNL     1      12.532   2.287   0.612  0.00  0.00    +0.000 HD
ATOM    142  H   UNL     1      12.118   3.420  -1.456  0.00  0.00    +0.000 HD
ATOM    143  H   UNL     1      12.323   5.571  -0.672  0.00  0.00    +0.000 HD
ATOM    144  H   UNL     1       9.646   4.626  -0.196  0.00  0.00    +0.000 HD
ATOM    145  H   UNL     1       9.433   5.419  -2.327  0.00  0.00    +0.000 HD
ATOM    146  H   UNL     1       9.842   2.561  -2.394  0.00  0.00    +0.000 HD
ATOM    147  H   UNL     1       8.932   2.216   0.481  0.00  0.00    +0.000 HD
ATOM    148  H   UNL     1       9.013  -0.178  -0.017  0.00  0.00    +0.000 HD
ATOM    149  H   UNL     1       7.739   0.663  -0.871  0.00  0.00    +0.000 HD
ATOM    150  H   UNL     1       9.179   0.620  -2.702  0.00  0.00    +0.000 HD
ATOM    151  H   UNL     1       8.333   3.118  -3.725  0.00  0.00    +0.000 HD
ATOM    152  H   UNL     1       6.470   4.441  -4.378  0.00  0.00    +0.000 HD
ATOM    153  H   UNL     1       7.157   6.386  -3.469  0.00  0.00    +0.000 HD
ATOM    154  H   UNL     1       5.728   4.717  -1.460  0.00  0.00    +0.000 HD
ATOM    155  H   UNL     1       3.862   5.664  -2.571  0.00  0.00    +0.000 HD
ATOM    156  H   UNL     1       4.281   3.202  -3.636  0.00  0.00    +0.000 HD
ATOM    157  H   UNL     1       5.862   2.126  -1.279  0.00  0.00    +0.000 HD
ATOM    158  H   UNL     1       5.644  -0.047  -2.359  0.00  0.00    +0.000 HD
ATOM    159  H   UNL     1       4.101   0.602  -1.830  0.00  0.00    +0.000 HD
ATOM    160  H   UNL     1       0.290  -1.753   0.080  0.00  0.00    +0.000 HD
ATOM    161  H   UNL     1      -0.277  -1.044   1.588  0.00  0.00    +0.000 HD
ATOM    162  H   UNL     1      -1.794  -1.166  -1.033  0.00  0.00    +0.000 HD
ATOM    163  H   UNL     1      -3.032  -2.635   0.267  0.00  0.00    +0.000 HD
ATOM    164  H   UNL     1      -3.738  -0.333   0.282  0.00  0.00    +0.000 HD
ATOM    165  H   UNL     1      -2.463   0.870   0.201  0.00  0.00    +0.000 HD
ATOM    166  H   UNL     1      -2.685  -0.080   1.671  0.00  0.00    +0.000 HD
ATOM    167  H   UNL     1       4.264  -1.579   9.481  0.00  0.00    +0.000 HD
ATOM    168  H   UNL     1       5.849  -0.877   9.787  0.00  0.00    +0.000 HD
ATOM    169  H   UNL     1       6.338   0.155  12.077  0.00  0.00    +0.000 HD
ATOM    170  H   UNL     1       4.712  -2.242  12.786  0.00  0.00    +0.000 HD
ATOM    171  H   UNL     1       3.449  -0.708  11.632  0.00  0.00    +0.000 HD
ATOM    172  H   UNL     1       5.091   0.105  13.321  0.00  0.00    +0.000 HD
ATOM    173  H   UNL     1       4.943   1.230  11.982  0.00  0.00    +0.000 HD
ATOM    174  H   UNL     1      12.898  -1.094   1.638  0.00  0.00    +0.000 HD
ATOM    175  H   UNL     1      12.973  -1.661   3.303  0.00  0.00    +0.000 HD
ATOM    176  H   UNL     1      15.227  -0.690   3.538  0.00  0.00    +0.000 HD
ATOM    177  H   UNL     1      16.112  -2.341   2.199  0.00  0.00    +0.000 HD
ATOM    178  H   UNL     1      16.488  -0.040   1.492  0.00  0.00    +0.000 HD
ATOM    179  H   UNL     1      15.177   1.082   1.810  0.00  0.00    +0.000 HD
ATOM    180  H   UNL     1      15.004  -0.139   0.549  0.00  0.00    +0.000 HD
ATOM    181  H   UNL     1       4.427  -1.407  -3.962  0.00  0.00    +0.000 HD
ATOM    182  H   UNL     1       2.903  -0.680  -3.464  0.00  0.00    +0.000 HD
ATOM    183  H   UNL     1       4.173  -0.518  -6.212  0.00  0.00    +0.000 HD
ATOM    184  H   UNL     1       2.330  -1.856  -6.650  0.00  0.00    +0.000 HD
ATOM    185  H   UNL     1       2.021   0.514  -6.927  0.00  0.00    +0.000 HD
ATOM    186  H   UNL     1       2.879   1.547  -5.798  0.00  0.00    +0.000 HD
ATOM    187  H   UNL     1       1.505   0.590  -5.245  0.00  0.00    +0.000 HD
TER 
