REMARK  Name = /content/drive/MyDrive/00_GITHUB_GD/DOCKING_ML/Docking_Scores/XYZ/SBEBCD.xyz
REMARK                            x       y       z     vdW  Elec       q    Type
REMARK                         _______ _______ _______ _____ _____    ______ ____
ATOM      1  C   UNL     1       5.219   3.507 -17.642  0.00  0.00    +0.000 C 
ATOM      2  C   UNL     1       5.368   4.989 -17.313  0.00  0.00    +0.000 C 
ATOM      3  O   UNL     1       5.973   5.698 -18.368  0.00  0.00    +0.000 OA
ATOM      4  C   UNL     1       6.209   5.181 -16.062  0.00  0.00    +0.000 C 
ATOM      5  O   UNL     1       6.224   6.536 -15.675  0.00  0.00    +0.000 OA
ATOM      6  C   UNL     1       5.627   4.372 -14.912  0.00  0.00    +0.000 C 
ATOM      7  C   UNL     1       5.416   2.913 -15.334  0.00  0.00    +0.000 C 
ATOM      8  O   UNL     1       4.667   2.855 -16.537  0.00  0.00    +0.000 OA
ATOM      9  C   UNL     1       4.676   2.078 -14.310  0.00  0.00    +0.000 C 
ATOM     10  O   UNL     1       3.423   2.651 -14.040  0.00  0.00    +0.000 OA
ATOM     11  O   UNL     1       6.553   4.438 -13.848  0.00  0.00    +0.000 OA
ATOM     12  C   UNL     1       6.115   4.636 -12.535  0.00  0.00    +0.000 C 
ATOM     13  C   UNL     1       6.597   5.989 -12.026  0.00  0.00    +0.000 C 
ATOM     14  O   UNL     1       6.107   7.045 -12.812  0.00  0.00    +0.000 OA
ATOM     15  C   UNL     1       8.118   6.013 -11.946  0.00  0.00    +0.000 C 
ATOM     16  O   UNL     1       8.561   7.204 -11.328  0.00  0.00    +0.000 OA
ATOM     17  C   UNL     1       8.637   4.836 -11.133  0.00  0.00    +0.000 C 
ATOM     18  C   UNL     1       7.965   3.523 -11.443  0.00  0.00    +0.000 C 
ATOM     19  O   UNL     1       6.613   3.632 -11.707  0.00  0.00    +0.000 OA
ATOM     20  C   UNL     1       8.210   2.390 -10.469  0.00  0.00    +0.000 C 
ATOM     21  O   UNL     1       7.686   2.720  -9.210  0.00  0.00    +0.000 OA
ATOM     22  O   UNL     1      10.037   4.729 -11.296  0.00  0.00    +0.000 OA
ATOM     23  C   UNL     1      10.878   5.276 -10.331  0.00  0.00    +0.000 C 
ATOM     24  C   UNL     1      11.958   6.112 -11.010  0.00  0.00    +0.000 C 
ATOM     25  O   UNL     1      11.419   7.072 -11.887  0.00  0.00    +0.000 OA
ATOM     26  C   UNL     1      12.901   5.225 -11.806  0.00  0.00    +0.000 C 
ATOM     27  O   UNL     1      13.985   5.977 -12.309  0.00  0.00    +0.000 OA
ATOM     28  C   UNL     1      13.463   4.113 -10.934  0.00  0.00    +0.000 C 
ATOM     29  C   UNL     1      12.323   3.366 -10.232  0.00  0.00    +0.000 C 
ATOM     30  O   UNL     1      11.478   4.283  -9.556  0.00  0.00    +0.000 OA
ATOM     31  C   UNL     1      12.787   2.359  -9.200  0.00  0.00    +0.000 C 
ATOM     32  O   UNL     1      13.572   2.999  -8.229  0.00  0.00    +0.000 OA
ATOM     33  O   UNL     1      14.158   3.229 -11.790  0.00  0.00    +0.000 OA
ATOM     34  C   UNL     1      15.407   2.717 -11.427  0.00  0.00    +0.000 C 
ATOM     35  C   UNL     1      16.462   3.206 -12.414  0.00  0.00    +0.000 C 
ATOM     36  O   UNL     1      16.533   4.608 -12.429  0.00  0.00    +0.000 OA
ATOM     37  C   UNL     1      16.202   2.625 -13.800  0.00  0.00    +0.000 C 
ATOM     38  O   UNL     1      17.197   3.020 -14.717  0.00  0.00    +0.000 OA
ATOM     39  C   UNL     1      16.085   1.105 -13.724  0.00  0.00    +0.000 C 
ATOM     40  C   UNL     1      15.055   0.702 -12.664  0.00  0.00    +0.000 C 
ATOM     41  O   UNL     1      15.377   1.324 -11.429  0.00  0.00    +0.000 OA
ATOM     42  C   UNL     1      14.970  -0.786 -12.399  0.00  0.00    +0.000 C 
ATOM     43  O   UNL     1      16.235  -1.288 -12.055  0.00  0.00    +0.000 OA
ATOM     44  O   UNL     1      15.678   0.646 -14.997  0.00  0.00    +0.000 OA
ATOM     45  C   UNL     1      16.350  -0.406 -15.621  0.00  0.00    +0.000 C 
ATOM     46  C   UNL     1      16.778   0.036 -17.015  0.00  0.00    +0.000 C 
ATOM     47  O   UNL     1      17.594   1.179 -16.967  0.00  0.00    +0.000 OA
ATOM     48  C   UNL     1      15.563   0.249 -17.911  0.00  0.00    +0.000 C 
ATOM     49  O   UNL     1      15.967   0.510 -19.236  0.00  0.00    +0.000 OA
ATOM     50  C   UNL     1      14.696  -1.001 -17.918  0.00  0.00    +0.000 C 
ATOM     51  C   UNL     1      14.345  -1.393 -16.478  0.00  0.00    +0.000 C 
ATOM     52  O   UNL     1      15.540  -1.537 -15.724  0.00  0.00    +0.000 OA
ATOM     53  C   UNL     1      13.582  -2.694 -16.350  0.00  0.00    +0.000 C 
ATOM     54  O   UNL     1      14.280  -3.728 -16.992  0.00  0.00    +0.000 OA
ATOM     55  O   UNL     1      13.522  -0.712 -18.650  0.00  0.00    +0.000 OA
ATOM     56  C   UNL     1      13.071  -1.598 -19.632  0.00  0.00    +0.000 C 
ATOM     57  C   UNL     1      12.915  -0.850 -20.949  0.00  0.00    +0.000 C 
ATOM     58  O   UNL     1      14.129  -0.272 -21.354  0.00  0.00    +0.000 OA
ATOM     59  C   UNL     1      11.791   0.178 -20.860  0.00  0.00    +0.000 C 
ATOM     60  O   UNL     1      11.595   0.814 -22.102  0.00  0.00    +0.000 OA
ATOM     61  C   UNL     1      10.503  -0.475 -20.361  0.00  0.00    +0.000 C 
ATOM     62  C   UNL     1      10.762  -1.277 -19.079  0.00  0.00    +0.000 C 
ATOM     63  O   UNL     1      11.850  -2.167 -19.277  0.00  0.00    +0.000 OA
ATOM     64  C   UNL     1       9.593  -2.128 -18.629  0.00  0.00    +0.000 C 
ATOM     65  O   UNL     1       9.252  -3.040 -19.639  0.00  0.00    +0.000 OA
ATOM     66  O   UNL     1       9.558   0.546 -20.099  0.00  0.00    +0.000 OA
ATOM     67  C   UNL     1       8.336   0.540 -20.764  0.00  0.00    +0.000 C 
ATOM     68  C   UNL     1       7.969   1.955 -21.213  0.00  0.00    +0.000 C 
ATOM     69  O   UNL     1       8.996   2.553 -21.960  0.00  0.00    +0.000 OA
ATOM     70  C   UNL     1       7.665   2.840 -20.019  0.00  0.00    +0.000 C 
ATOM     71  O   UNL     1       7.224   4.089 -20.496  0.00  0.00    +0.000 OA
ATOM     72  C   UNL     1       6.598   2.186 -19.151  0.00  0.00    +0.000 C 
ATOM     73  C   UNL     1       7.007   0.760 -18.779  0.00  0.00    +0.000 C 
ATOM     74  O   UNL     1       7.308   0.034 -19.962  0.00  0.00    +0.000 OA
ATOM     75  C   UNL     1       5.936  -0.013 -18.039  0.00  0.00    +0.000 C 
ATOM     76  O   UNL     1       4.751  -0.031 -18.792  0.00  0.00    +0.000 OA
ATOM     77  O   UNL     1       6.459   2.973 -17.984  0.00  0.00    +0.000 OA
ATOM     78  C   UNL     1       2.700   1.986 -13.028  0.00  0.00    +0.000 C 
ATOM     79  C   UNL     1       1.371   2.695 -12.839  0.00  0.00    +0.000 C 
ATOM     80  C   UNL     1       0.543   2.072 -11.715  0.00  0.00    +0.000 C 
ATOM     81  C   UNL     1      -0.795   2.789 -11.561  0.00  0.00    +0.000 C 
ATOM     82  S   UNL     1      -1.791   2.186 -10.220  0.00  0.00    +0.000 S 
ATOM     83  O   UNL     1      -2.040   0.767 -10.475  0.00  0.00    +0.000 OA
ATOM     84  O   UNL     1      -3.019   2.983 -10.254  0.00  0.00    +0.000 OA
ATOM     85  O   UNL     1      -1.023   2.404  -8.992  0.00  0.00    +0.000 OA
ATOM     86  C   UNL     1       7.845   1.705  -8.245  0.00  0.00    +0.000 C 
ATOM     87  C   UNL     1       7.298   2.206  -6.920  0.00  0.00    +0.000 C 
ATOM     88  C   UNL     1       7.423   1.154  -5.818  0.00  0.00    +0.000 C 
ATOM     89  C   UNL     1       6.909   1.691  -4.485  0.00  0.00    +0.000 C 
ATOM     90  S   UNL     1       7.011   0.525  -3.149  0.00  0.00    +0.000 S 
ATOM     91  O   UNL     1       6.507   1.231  -1.970  0.00  0.00    +0.000 OA
ATOM     92  O   UNL     1       8.421   0.155  -3.016  0.00  0.00    +0.000 OA
ATOM     93  O   UNL     1       6.170  -0.616  -3.514  0.00  0.00    +0.000 OA
ATOM     94  C   UNL     1      14.062   2.135  -7.229  0.00  0.00    +0.000 C 
ATOM     95  C   UNL     1      14.891   2.951  -6.254  0.00  0.00    +0.000 C 
ATOM     96  C   UNL     1      15.487   2.090  -5.139  0.00  0.00    +0.000 C 
ATOM     97  C   UNL     1      16.310   2.942  -4.178  0.00  0.00    +0.000 C 
ATOM     98  S   UNL     1      17.071   2.027  -2.860  0.00  0.00    +0.000 S 
ATOM     99  O   UNL     1      17.798   3.018  -2.065  0.00  0.00    +0.000 OA
ATOM    100  O   UNL     1      17.965   1.049  -3.481  0.00  0.00    +0.000 OA
ATOM    101  O   UNL     1      15.992   1.390  -2.103  0.00  0.00    +0.000 OA
ATOM    102  C   UNL     1      16.239  -2.669 -11.773  0.00  0.00    +0.000 C 
ATOM    103  C   UNL     1      17.658  -3.093 -11.443  0.00  0.00    +0.000 C 
ATOM    104  C   UNL     1      17.747  -4.583 -11.112  0.00  0.00    +0.000 C 
ATOM    105  C   UNL     1      19.184  -4.992 -10.802  0.00  0.00    +0.000 C 
ATOM    106  S   UNL     1      19.376  -6.710 -10.395  0.00  0.00    +0.000 S 
ATOM    107  O   UNL     1      18.570  -6.955  -9.197  0.00  0.00    +0.000 OA
ATOM    108  O   UNL     1      20.806  -6.899 -10.151  0.00  0.00    +0.000 OA
ATOM    109  O   UNL     1      18.902  -7.476 -11.549  0.00  0.00    +0.000 OA
ATOM    110  C   UNL     1      13.653  -4.986 -16.883  0.00  0.00    +0.000 C 
ATOM    111  C   UNL     1      14.466  -6.004 -17.661  0.00  0.00    +0.000 C 
ATOM    112  C   UNL     1      13.868  -7.408 -17.559  0.00  0.00    +0.000 C 
ATOM    113  C   UNL     1      14.671  -8.410 -18.383  0.00  0.00    +0.000 C 
ATOM    114  S   UNL     1      14.063 -10.076 -18.283  0.00  0.00    +0.000 S 
ATOM    115  O   UNL     1      12.676 -10.052 -18.752  0.00  0.00    +0.000 OA
ATOM    116  O   UNL     1      14.165 -10.481 -16.880  0.00  0.00    +0.000 OA
ATOM    117  O   UNL     1      14.932 -10.868 -19.155  0.00  0.00    +0.000 OA
ATOM    118  C   UNL     1       8.167  -3.877 -19.310  0.00  0.00    +0.000 C 
ATOM    119  C   UNL     1       7.919  -4.825 -20.469  0.00  0.00    +0.000 C 
ATOM    120  C   UNL     1       6.745  -5.766 -20.197  0.00  0.00    +0.000 C 
ATOM    121  C   UNL     1       6.521  -6.716 -21.370  0.00  0.00    +0.000 C 
ATOM    122  S   UNL     1       5.164  -7.839 -21.140  0.00  0.00    +0.000 S 
ATOM    123  O   UNL     1       3.960  -7.022 -20.975  0.00  0.00    +0.000 OA
ATOM    124  O   UNL     1       5.463  -8.631 -19.946  0.00  0.00    +0.000 OA
ATOM    125  O   UNL     1       5.118  -8.657 -22.353  0.00  0.00    +0.000 OA
ATOM    126  C   UNL     1       3.675  -0.668 -18.142  0.00  0.00    +0.000 C 
ATOM    127  C   UNL     1       2.464  -0.631 -19.056  0.00  0.00    +0.000 C 
ATOM    128  C   UNL     1       1.239  -1.273 -18.404  0.00  0.00    +0.000 C 
ATOM    129  C   UNL     1       0.037  -1.246 -19.343  0.00  0.00    +0.000 C 
ATOM    130  S   UNL     1      -1.442  -1.931 -18.637  0.00  0.00    +0.000 S 
ATOM    131  O   UNL     1      -1.139  -3.317 -18.279  0.00  0.00    +0.000 OA
ATOM    132  O   UNL     1      -2.461  -1.836 -19.684  0.00  0.00    +0.000 OA
ATOM    133  O   UNL     1      -1.770  -1.114 -17.467  0.00  0.00    +0.000 OA
ATOM    134  H   UNL     1       4.516   3.371 -18.450  0.00  0.00    +0.000 HD
ATOM    135  H   UNL     1       4.376   5.383 -17.127  0.00  0.00    +0.000 HD
ATOM    136  H   UNL     1       5.308   5.935 -19.007  0.00  0.00    +0.000 HD
ATOM    137  H   UNL     1       7.222   4.847 -16.252  0.00  0.00    +0.000 HD
ATOM    138  H   UNL     1       6.749   7.030 -16.295  0.00  0.00    +0.000 HD
ATOM    139  H   UNL     1       4.685   4.816 -14.619  0.00  0.00    +0.000 HD
ATOM    140  H   UNL     1       6.387   2.458 -15.486  0.00  0.00    +0.000 HD
ATOM    141  H   UNL     1       5.266   2.012 -13.404  0.00  0.00    +0.000 HD
ATOM    142  H   UNL     1       4.551   1.073 -14.701  0.00  0.00    +0.000 HD
ATOM    143  H   UNL     1       5.040   4.572 -12.479  0.00  0.00    +0.000 HD
ATOM    144  H   UNL     1       6.192   6.131 -11.033  0.00  0.00    +0.000 HD
ATOM    145  H   UNL     1       6.325   6.894 -13.731  0.00  0.00    +0.000 HD
ATOM    146  H   UNL     1       8.531   5.953 -12.947  0.00  0.00    +0.000 HD
ATOM    147  H   UNL     1       8.256   7.943 -11.844  0.00  0.00    +0.000 HD
ATOM    148  H   UNL     1       8.393   4.988 -10.090  0.00  0.00    +0.000 HD
ATOM    149  H   UNL     1       8.399   3.238 -12.394  0.00  0.00    +0.000 HD
ATOM    150  H   UNL     1       9.274   2.195 -10.398  0.00  0.00    +0.000 HD
ATOM    151  H   UNL     1       7.728   1.495 -10.852  0.00  0.00    +0.000 HD
ATOM    152  H   UNL     1      10.314   5.883  -9.640  0.00  0.00    +0.000 HD
ATOM    153  H   UNL     1      12.523   6.604 -10.224  0.00  0.00    +0.000 HD
ATOM    154  H   UNL     1      10.538   7.316 -11.610  0.00  0.00    +0.000 HD
ATOM    155  H   UNL     1      12.357   4.780 -12.631  0.00  0.00    +0.000 HD
ATOM    156  H   UNL     1      13.674   6.534 -13.014  0.00  0.00    +0.000 HD
ATOM    157  H   UNL     1      14.138   4.540 -10.206  0.00  0.00    +0.000 HD
ATOM    158  H   UNL     1      11.755   2.830 -10.982  0.00  0.00    +0.000 HD
ATOM    159  H   UNL     1      13.351   1.572  -9.686  0.00  0.00    +0.000 HD
ATOM    160  H   UNL     1      11.913   1.909  -8.738  0.00  0.00    +0.000 HD
ATOM    161  H   UNL     1      15.661   3.015 -10.423  0.00  0.00    +0.000 HD
ATOM    162  H   UNL     1      17.425   2.855 -12.063  0.00  0.00    +0.000 HD
ATOM    163  H   UNL     1      15.664   4.976 -12.581  0.00  0.00    +0.000 HD
ATOM    164  H   UNL     1      15.277   3.027 -14.191  0.00  0.00    +0.000 HD
ATOM    165  H   UNL     1      18.050   2.729 -14.407  0.00  0.00    +0.000 HD
ATOM    166  H   UNL     1      17.052   0.690 -13.472  0.00  0.00    +0.000 HD
ATOM    167  H   UNL     1      14.075   1.028 -12.991  0.00  0.00    +0.000 HD
ATOM    168  H   UNL     1      14.589  -1.289 -13.278  0.00  0.00    +0.000 HD
ATOM    169  H   UNL     1      14.268  -0.950 -11.587  0.00  0.00    +0.000 HD
ATOM    170  H   UNL     1      17.209  -0.703 -15.039  0.00  0.00    +0.000 HD
ATOM    171  H   UNL     1      17.380  -0.756 -17.441  0.00  0.00    +0.000 HD
ATOM    172  H   UNL     1      17.215   1.820 -16.369  0.00  0.00    +0.000 HD
ATOM    173  H   UNL     1      14.977   1.083 -17.540  0.00  0.00    +0.000 HD
ATOM    174  H   UNL     1      16.427   1.343 -19.257  0.00  0.00    +0.000 HD
ATOM    175  H   UNL     1      15.242  -1.803 -18.394  0.00  0.00    +0.000 HD
ATOM    176  H   UNL     1      13.732  -0.613 -16.044  0.00  0.00    +0.000 HD
ATOM    177  H   UNL     1      12.596  -2.579 -16.780  0.00  0.00    +0.000 HD
ATOM    178  H   UNL     1      13.463  -2.920 -15.294  0.00  0.00    +0.000 HD
ATOM    179  H   UNL     1      13.763  -2.417 -19.745  0.00  0.00    +0.000 HD
ATOM    180  H   UNL     1      12.655  -1.580 -21.706  0.00  0.00    +0.000 HD
ATOM    181  H   UNL     1      14.539   0.171 -20.614  0.00  0.00    +0.000 HD
ATOM    182  H   UNL     1      12.075   0.964 -20.172  0.00  0.00    +0.000 HD
ATOM    183  H   UNL     1      11.354   0.164 -22.753  0.00  0.00    +0.000 HD
ATOM    184  H   UNL     1      10.128  -1.137 -21.130  0.00  0.00    +0.000 HD
ATOM    185  H   UNL     1      10.997  -0.587 -18.277  0.00  0.00    +0.000 HD
ATOM    186  H   UNL     1       8.750  -1.493 -18.389  0.00  0.00    +0.000 HD
ATOM    187  H   UNL     1       9.881  -2.659 -17.727  0.00  0.00    +0.000 HD
ATOM    188  H   UNL     1       8.383  -0.114 -21.622  0.00  0.00    +0.000 HD
ATOM    189  H   UNL     1       7.071   1.871 -21.816  0.00  0.00    +0.000 HD
ATOM    190  H   UNL     1       9.109   2.075 -22.774  0.00  0.00    +0.000 HD
ATOM    191  H   UNL     1       8.567   2.969 -19.430  0.00  0.00    +0.000 HD
ATOM    192  H   UNL     1       6.993   4.633 -19.747  0.00  0.00    +0.000 HD
ATOM    193  H   UNL     1       5.666   2.169 -19.698  0.00  0.00    +0.000 HD
ATOM    194  H   UNL     1       7.882   0.801 -18.142  0.00  0.00    +0.000 HD
ATOM    195  H   UNL     1       5.765   0.448 -17.074  0.00  0.00    +0.000 HD
ATOM    196  H   UNL     1       6.286  -1.026 -17.869  0.00  0.00    +0.000 HD
ATOM    197  H   UNL     1       2.544   0.948 -13.312  0.00  0.00    +0.000 HD
ATOM    198  H   UNL     1       3.275   1.995 -12.106  0.00  0.00    +0.000 HD
ATOM    199  H   UNL     1       1.562   3.741 -12.617  0.00  0.00    +0.000 HD
ATOM    200  H   UNL     1       0.817   2.660 -13.772  0.00  0.00    +0.000 HD
ATOM    201  H   UNL     1       1.095   2.129 -10.782  0.00  0.00    +0.000 HD
ATOM    202  H   UNL     1       0.370   1.021 -11.924  0.00  0.00    +0.000 HD
ATOM    203  H   UNL     1      -0.650   3.846 -11.373  0.00  0.00    +0.000 HD
ATOM    204  H   UNL     1      -1.397   2.687 -12.456  0.00  0.00    +0.000 HD
ATOM    205  H   UNL     1       7.316   0.811  -8.566  0.00  0.00    +0.000 HD
ATOM    206  H   UNL     1       8.898   1.452  -8.151  0.00  0.00    +0.000 HD
ATOM    207  H   UNL     1       7.838   3.105  -6.636  0.00  0.00    +0.000 HD
ATOM    208  H   UNL     1       6.256   2.484  -7.051  0.00  0.00    +0.000 HD
ATOM    209  H   UNL     1       8.461   0.858  -5.711  0.00  0.00    +0.000 HD
ATOM    210  H   UNL     1       6.862   0.267  -6.094  0.00  0.00    +0.000 HD
ATOM    211  H   UNL     1       7.476   2.559  -4.172  0.00  0.00    +0.000 HD
ATOM    212  H   UNL     1       5.866   1.979  -4.556  0.00  0.00    +0.000 HD
ATOM    213  H   UNL     1      13.229   1.657  -6.719  0.00  0.00    +0.000 HD
ATOM    214  H   UNL     1      14.664   1.354  -7.685  0.00  0.00    +0.000 HD
ATOM    215  H   UNL     1      15.688   3.446  -6.802  0.00  0.00    +0.000 HD
ATOM    216  H   UNL     1      14.265   3.728  -5.826  0.00  0.00    +0.000 HD
ATOM    217  H   UNL     1      16.116   1.318  -5.570  0.00  0.00    +0.000 HD
ATOM    218  H   UNL     1      14.692   1.592  -4.594  0.00  0.00    +0.000 HD
ATOM    219  H   UNL     1      17.117   3.445  -4.697  0.00  0.00    +0.000 HD
ATOM    220  H   UNL     1      15.695   3.698  -3.704  0.00  0.00    +0.000 HD
ATOM    221  H   UNL     1      15.574  -2.872 -10.937  0.00  0.00    +0.000 HD
ATOM    222  H   UNL     1      15.866  -3.217 -12.634  0.00  0.00    +0.000 HD
ATOM    223  H   UNL     1      18.299  -2.864 -12.290  0.00  0.00    +0.000 HD
ATOM    224  H   UNL     1      18.014  -2.506 -10.602  0.00  0.00    +0.000 HD
ATOM    225  H   UNL     1      17.377  -5.166 -11.949  0.00  0.00    +0.000 HD
ATOM    226  H   UNL     1      17.114  -4.806 -10.260  0.00  0.00    +0.000 HD
ATOM    227  H   UNL     1      19.831  -4.809 -11.652  0.00  0.00    +0.000 HD
ATOM    228  H   UNL     1      19.574  -4.436  -9.958  0.00  0.00    +0.000 HD
ATOM    229  H   UNL     1      13.585  -5.269 -15.836  0.00  0.00    +0.000 HD
ATOM    230  H   UNL     1      12.642  -4.924 -17.277  0.00  0.00    +0.000 HD
ATOM    231  H   UNL     1      14.513  -5.695 -18.702  0.00  0.00    +0.000 HD
ATOM    232  H   UNL     1      15.483  -6.008 -17.280  0.00  0.00    +0.000 HD
ATOM    233  H   UNL     1      12.841  -7.394 -17.909  0.00  0.00    +0.000 HD
ATOM    234  H   UNL     1      13.851  -7.721 -16.521  0.00  0.00    +0.000 HD
ATOM    235  H   UNL     1      14.660  -8.147 -19.434  0.00  0.00    +0.000 HD
ATOM    236  H   UNL     1      15.703  -8.446 -18.057  0.00  0.00    +0.000 HD
ATOM    237  H   UNL     1       8.397  -4.432 -18.404  0.00  0.00    +0.000 HD
ATOM    238  H   UNL     1       7.286  -3.272 -19.115  0.00  0.00    +0.000 HD
ATOM    239  H   UNL     1       7.725  -4.242 -21.365  0.00  0.00    +0.000 HD
ATOM    240  H   UNL     1       8.822  -5.402 -20.651  0.00  0.00    +0.000 HD
ATOM    241  H   UNL     1       5.845  -5.186 -20.023  0.00  0.00    +0.000 HD
ATOM    242  H   UNL     1       6.938  -6.341 -19.297  0.00  0.00    +0.000 HD
ATOM    243  H   UNL     1       6.308  -6.169 -22.280  0.00  0.00    +0.000 HD
ATOM    244  H   UNL     1       7.395  -7.332 -21.545  0.00  0.00    +0.000 HD
ATOM    245  H   UNL     1       3.946  -1.694 -17.907  0.00  0.00    +0.000 HD
ATOM    246  H   UNL     1       3.464  -0.158 -17.205  0.00  0.00    +0.000 HD
ATOM    247  H   UNL     1       2.247   0.403 -19.309  0.00  0.00    +0.000 HD
ATOM    248  H   UNL     1       2.705  -1.146 -19.981  0.00  0.00    +0.000 HD
ATOM    249  H   UNL     1       0.996  -0.744 -17.488  0.00  0.00    +0.000 HD
ATOM    250  H   UNL     1       1.464  -2.299 -18.133  0.00  0.00    +0.000 HD
ATOM    251  H   UNL     1      -0.209  -0.231 -19.632  0.00  0.00    +0.000 HD
ATOM    252  H   UNL     1       0.234  -1.813 -20.245  0.00  0.00    +0.000 HD
TER 
